    1C
    1UUSER                                                              
    1UDATE              26.december.2019                                
    1UTIME              12:45:51                                        
    1UHOST                                                              
    1UPGM               CalculiX                                        
    1UVERSION           Version 2.11                             
    1UCOMPILETIME       So 31. Jul 13:26:31 CEST 2016                    
    1UDIR                                                               
    1UDBN                                                               
    1UMAT    1STEEL                                                     
    2C                           621                                     1
 -1         1 1.00000E-01 1.47800E-01 0.00000E+00
 -1         2 1.00000E-01 7.39000E-02 0.00000E+00
 -1         3 1.00000E-01 7.39000E-02 5.00000E-01
 -1         4 1.00000E-01 1.47800E-01 5.00000E-01
 -1         5 5.00000E-02 1.47800E-01 0.00000E+00
 -1         6 5.00000E-02 7.39000E-02-1.77636E-15
 -1         7 5.00000E-02 7.39000E-02 5.00000E-01
 -1         8 5.00000E-02 1.47800E-01 5.00000E-01
 -1         9 1.00000E-01 1.10850E-01 0.00000E+00
 -1        10 1.00000E-01 7.39000E-02 2.50000E-01
 -1        11 1.00000E-01 1.10850E-01 5.00000E-01
 -1        12 1.00000E-01 1.47800E-01 2.50000E-01
 -1        13 7.50000E-02 1.47800E-01 0.00000E+00
 -1        14 7.50000E-02 7.39000E-02 0.00000E+00
 -1        15 7.50000E-02 7.39000E-02 5.00000E-01
 -1        16 7.50000E-02 1.47800E-01 5.00000E-01
 -1        17 5.00000E-02 1.10850E-01 8.88178E-16
 -1        18 5.00000E-02 7.39000E-02 2.50000E-01
 -1        19 5.00000E-02 1.10850E-01 5.00000E-01
 -1        20 5.00000E-02 1.47800E-01 2.50000E-01
 -1        21 1.00000E-01 7.39000E-02 1.00000E+00
 -1        22 1.00000E-01 1.47800E-01 1.00000E+00
 -1        23 5.00000E-02 7.39000E-02 1.00000E+00
 -1        24 5.00000E-02 1.47800E-01 1.00000E+00
 -1        25 1.00000E-01 7.39000E-02 7.50000E-01
 -1        26 1.00000E-01 1.10850E-01 1.00000E+00
 -1        27 1.00000E-01 1.47800E-01 7.50000E-01
 -1        28 7.50000E-02 7.39000E-02 1.00000E+00
 -1        29 7.50000E-02 1.47800E-01 1.00000E+00
 -1        30 5.00000E-02 7.39000E-02 7.50000E-01
 -1        31 5.00000E-02 1.10850E-01 1.00000E+00
 -1        32 5.00000E-02 1.47800E-01 7.50000E-01
 -1        33 1.00000E-01 7.39000E-02 1.50000E+00
 -1        34 1.00000E-01 1.47800E-01 1.50000E+00
 -1        35 5.00000E-02 7.39000E-02 1.50000E+00
 -1        36 5.00000E-02 1.47800E-01 1.50000E+00
 -1        37 1.00000E-01 7.39000E-02 1.25000E+00
 -1        38 1.00000E-01 1.10850E-01 1.50000E+00
 -1        39 1.00000E-01 1.47800E-01 1.25000E+00
 -1        40 7.50000E-02 7.39000E-02 1.50000E+00
 -1        41 7.50000E-02 1.47800E-01 1.50000E+00
 -1        42 5.00000E-02 7.39000E-02 1.25000E+00
 -1        43 5.00000E-02 1.10850E-01 1.50000E+00
 -1        44 5.00000E-02 1.47800E-01 1.25000E+00
 -1        45 1.00000E-01 7.39000E-02 2.00000E+00
 -1        46 1.00000E-01 1.47800E-01 2.00000E+00
 -1        47 5.00000E-02 7.39000E-02 2.00000E+00
 -1        48 5.00000E-02 1.47800E-01 2.00000E+00
 -1        49 1.00000E-01 7.39000E-02 1.75000E+00
 -1        50 1.00000E-01 1.10850E-01 2.00000E+00
 -1        51 1.00000E-01 1.47800E-01 1.75000E+00
 -1        52 7.50000E-02 7.39000E-02 2.00000E+00
 -1        53 7.50000E-02 1.47800E-01 2.00000E+00
 -1        54 5.00000E-02 7.39000E-02 1.75000E+00
 -1        55 5.00000E-02 1.10850E-01 2.00000E+00
 -1        56 5.00000E-02 1.47800E-01 1.75000E+00
 -1        57 1.00000E-01 7.39000E-02 2.50000E+00
 -1        58 1.00000E-01 1.47800E-01 2.50000E+00
 -1        59 5.00000E-02 7.39000E-02 2.50000E+00
 -1        60 5.00000E-02 1.47800E-01 2.50000E+00
 -1        61 1.00000E-01 7.39000E-02 2.25000E+00
 -1        62 1.00000E-01 1.10850E-01 2.50000E+00
 -1        63 1.00000E-01 1.47800E-01 2.25000E+00
 -1        64 7.50000E-02 7.39000E-02 2.50000E+00
 -1        65 7.50000E-02 1.47800E-01 2.50000E+00
 -1        66 5.00000E-02 7.39000E-02 2.25000E+00
 -1        67 5.00000E-02 1.10850E-01 2.50000E+00
 -1        68 5.00000E-02 1.47800E-01 2.25000E+00
 -1        69 1.00000E-01 7.39000E-02 3.00000E+00
 -1        70 1.00000E-01 1.47800E-01 3.00000E+00
 -1        71 5.00000E-02 7.39000E-02 3.00000E+00
 -1        72 5.00000E-02 1.47800E-01 3.00000E+00
 -1        73 1.00000E-01 7.39000E-02 2.75000E+00
 -1        74 1.00000E-01 1.10850E-01 3.00000E+00
 -1        75 1.00000E-01 1.47800E-01 2.75000E+00
 -1        76 7.50000E-02 7.39000E-02 3.00000E+00
 -1        77 7.50000E-02 1.47800E-01 3.00000E+00
 -1        78 5.00000E-02 7.39000E-02 2.75000E+00
 -1        79 5.00000E-02 1.10850E-01 3.00000E+00
 -1        80 5.00000E-02 1.47800E-01 2.75000E+00
 -1        81 1.00000E-01 7.39000E-02 3.50000E+00
 -1        82 1.00000E-01 1.47800E-01 3.50000E+00
 -1        83 5.00000E-02 7.39000E-02 3.50000E+00
 -1        84 5.00000E-02 1.47800E-01 3.50000E+00
 -1        85 1.00000E-01 7.39000E-02 3.25000E+00
 -1        86 1.00000E-01 1.10850E-01 3.50000E+00
 -1        87 1.00000E-01 1.47800E-01 3.25000E+00
 -1        88 7.50000E-02 7.39000E-02 3.50000E+00
 -1        89 7.50000E-02 1.47800E-01 3.50000E+00
 -1        90 5.00000E-02 7.39000E-02 3.25000E+00
 -1        91 5.00000E-02 1.10850E-01 3.50000E+00
 -1        92 5.00000E-02 1.47800E-01 3.25000E+00
 -1        93 1.00000E-01 7.39000E-02 4.00000E+00
 -1        94 1.00000E-01 1.47800E-01 4.00000E+00
 -1        95 5.00000E-02 7.39000E-02 4.00000E+00
 -1        96 5.00000E-02 1.47800E-01 4.00000E+00
 -1        97 1.00000E-01 7.39000E-02 3.75000E+00
 -1        98 1.00000E-01 1.10850E-01 4.00000E+00
 -1        99 1.00000E-01 1.47800E-01 3.75000E+00
 -1       100 7.50000E-02 7.39000E-02 4.00000E+00
 -1       101 7.50000E-02 1.47800E-01 4.00000E+00
 -1       102 5.00000E-02 7.39000E-02 3.75000E+00
 -1       103 5.00000E-02 1.10850E-01 4.00000E+00
 -1       104 5.00000E-02 1.47800E-01 3.75000E+00
 -1       105 1.00000E-01 7.39000E-02 4.50000E+00
 -1       106 1.00000E-01 1.47800E-01 4.50000E+00
 -1       107 5.00000E-02 7.39000E-02 4.50000E+00
 -1       108 5.00000E-02 1.47800E-01 4.50000E+00
 -1       109 1.00000E-01 7.39000E-02 4.25000E+00
 -1       110 1.00000E-01 1.10850E-01 4.50000E+00
 -1       111 1.00000E-01 1.47800E-01 4.25000E+00
 -1       112 7.50000E-02 7.39000E-02 4.50000E+00
 -1       113 7.50000E-02 1.47800E-01 4.50000E+00
 -1       114 5.00000E-02 7.39000E-02 4.25000E+00
 -1       115 5.00000E-02 1.10850E-01 4.50000E+00
 -1       116 5.00000E-02 1.47800E-01 4.25000E+00
 -1       117 1.00000E-01 7.39000E-02 5.00000E+00
 -1       118 1.00000E-01 1.47800E-01 5.00000E+00
 -1       119 5.00000E-02 7.39000E-02 5.00000E+00
 -1       120 5.00000E-02 1.47800E-01 5.00000E+00
 -1       121 1.00000E-01 7.39000E-02 4.75000E+00
 -1       122 1.00000E-01 1.10850E-01 5.00000E+00
 -1       123 1.00000E-01 1.47800E-01 4.75000E+00
 -1       124 7.50000E-02 7.39000E-02 5.00000E+00
 -1       125 7.50000E-02 1.47800E-01 5.00000E+00
 -1       126 5.00000E-02 7.39000E-02 4.75000E+00
 -1       127 5.00000E-02 1.10850E-01 5.00000E+00
 -1       128 5.00000E-02 1.47800E-01 4.75000E+00
 -1       129 1.00000E-01 7.39000E-02 5.50000E+00
 -1       130 1.00000E-01 1.47800E-01 5.50000E+00
 -1       131 5.00000E-02 7.39000E-02 5.50000E+00
 -1       132 5.00000E-02 1.47800E-01 5.50000E+00
 -1       133 1.00000E-01 7.39000E-02 5.25000E+00
 -1       134 1.00000E-01 1.10850E-01 5.50000E+00
 -1       135 1.00000E-01 1.47800E-01 5.25000E+00
 -1       136 7.50000E-02 7.39000E-02 5.50000E+00
 -1       137 7.50000E-02 1.47800E-01 5.50000E+00
 -1       138 5.00000E-02 7.39000E-02 5.25000E+00
 -1       139 5.00000E-02 1.10850E-01 5.50000E+00
 -1       140 5.00000E-02 1.47800E-01 5.25000E+00
 -1       141 1.00000E-01 7.39000E-02 6.00000E+00
 -1       142 1.00000E-01 1.47800E-01 6.00000E+00
 -1       143 5.00000E-02 7.39000E-02 6.00000E+00
 -1       144 5.00000E-02 1.47800E-01 6.00000E+00
 -1       145 1.00000E-01 7.39000E-02 5.75000E+00
 -1       146 1.00000E-01 1.10850E-01 6.00000E+00
 -1       147 1.00000E-01 1.47800E-01 5.75000E+00
 -1       148 7.50000E-02 7.39000E-02 6.00000E+00
 -1       149 7.50000E-02 1.47800E-01 6.00000E+00
 -1       150 5.00000E-02 7.39000E-02 5.75000E+00
 -1       151 5.00000E-02 1.10850E-01 6.00000E+00
 -1       152 5.00000E-02 1.47800E-01 5.75000E+00
 -1       153 1.00000E-01 7.39000E-02 6.50000E+00
 -1       154 1.00000E-01 1.47800E-01 6.50000E+00
 -1       155 5.00000E-02 7.39000E-02 6.50000E+00
 -1       156 5.00000E-02 1.47800E-01 6.50000E+00
 -1       157 1.00000E-01 7.39000E-02 6.25000E+00
 -1       158 1.00000E-01 1.10850E-01 6.50000E+00
 -1       159 1.00000E-01 1.47800E-01 6.25000E+00
 -1       160 7.50000E-02 7.39000E-02 6.50000E+00
 -1       161 7.50000E-02 1.47800E-01 6.50000E+00
 -1       162 5.00000E-02 7.39000E-02 6.25000E+00
 -1       163 5.00000E-02 1.10850E-01 6.50000E+00
 -1       164 5.00000E-02 1.47800E-01 6.25000E+00
 -1       165 1.00000E-01 7.39000E-02 7.00000E+00
 -1       166 1.00000E-01 1.47800E-01 7.00000E+00
 -1       167 5.00000E-02 7.39000E-02 7.00000E+00
 -1       168 5.00000E-02 1.47800E-01 7.00000E+00
 -1       169 1.00000E-01 7.39000E-02 6.75000E+00
 -1       170 1.00000E-01 1.10850E-01 7.00000E+00
 -1       171 1.00000E-01 1.47800E-01 6.75000E+00
 -1       172 7.50000E-02 7.39000E-02 7.00000E+00
 -1       173 7.50000E-02 1.47800E-01 7.00000E+00
 -1       174 5.00000E-02 7.39000E-02 6.75000E+00
 -1       175 5.00000E-02 1.10850E-01 7.00000E+00
 -1       176 5.00000E-02 1.47800E-01 6.75000E+00
 -1       177 1.00000E-01 7.39000E-02 7.50000E+00
 -1       178 1.00000E-01 1.47800E-01 7.50000E+00
 -1       179 5.00000E-02 7.39000E-02 7.50000E+00
 -1       180 5.00000E-02 1.47800E-01 7.50000E+00
 -1       181 1.00000E-01 7.39000E-02 7.25000E+00
 -1       182 1.00000E-01 1.10850E-01 7.50000E+00
 -1       183 1.00000E-01 1.47800E-01 7.25000E+00
 -1       184 7.50000E-02 7.39000E-02 7.50000E+00
 -1       185 7.50000E-02 1.47800E-01 7.50000E+00
 -1       186 5.00000E-02 7.39000E-02 7.25000E+00
 -1       187 5.00000E-02 1.10850E-01 7.50000E+00
 -1       188 5.00000E-02 1.47800E-01 7.25000E+00
 -1       189 1.00000E-01 7.39000E-02 8.00000E+00
 -1       190 1.00000E-01 1.47800E-01 8.00000E+00
 -1       191 5.00000E-02 7.39000E-02 8.00000E+00
 -1       192 5.00000E-02 1.47800E-01 8.00000E+00
 -1       193 1.00000E-01 7.39000E-02 7.75000E+00
 -1       194 1.00000E-01 1.10850E-01 8.00000E+00
 -1       195 1.00000E-01 1.47800E-01 7.75000E+00
 -1       196 7.50000E-02 7.39000E-02 8.00000E+00
 -1       197 7.50000E-02 1.47800E-01 8.00000E+00
 -1       198 5.00000E-02 7.39000E-02 7.75000E+00
 -1       199 5.00000E-02 1.10850E-01 8.00000E+00
 -1       200 5.00000E-02 1.47800E-01 7.75000E+00
 -1       201 1.00000E-01 7.39000E-02 8.50000E+00
 -1       202 1.00000E-01 1.47800E-01 8.50000E+00
 -1       203 5.00000E-02 7.39000E-02 8.50000E+00
 -1       204 5.00000E-02 1.47800E-01 8.50000E+00
 -1       205 1.00000E-01 7.39000E-02 8.25000E+00
 -1       206 1.00000E-01 1.10850E-01 8.50000E+00
 -1       207 1.00000E-01 1.47800E-01 8.25000E+00
 -1       208 7.50000E-02 7.39000E-02 8.50000E+00
 -1       209 7.50000E-02 1.47800E-01 8.50000E+00
 -1       210 5.00000E-02 7.39000E-02 8.25000E+00
 -1       211 5.00000E-02 1.10850E-01 8.50000E+00
 -1       212 5.00000E-02 1.47800E-01 8.25000E+00
 -1       213 1.00000E-01 7.39000E-02 9.00000E+00
 -1       214 1.00000E-01 1.47800E-01 9.00000E+00
 -1       215 5.00000E-02 7.39000E-02 9.00000E+00
 -1       216 5.00000E-02 1.47800E-01 9.00000E+00
 -1       217 1.00000E-01 7.39000E-02 8.75000E+00
 -1       218 1.00000E-01 1.10850E-01 9.00000E+00
 -1       219 1.00000E-01 1.47800E-01 8.75000E+00
 -1       220 7.50000E-02 7.39000E-02 9.00000E+00
 -1       221 7.50000E-02 1.47800E-01 9.00000E+00
 -1       222 5.00000E-02 7.39000E-02 8.75000E+00
 -1       223 5.00000E-02 1.10850E-01 9.00000E+00
 -1       224 5.00000E-02 1.47800E-01 8.75000E+00
 -1       225 1.00000E-01 7.39000E-02 9.50000E+00
 -1       226 1.00000E-01 1.47800E-01 9.50000E+00
 -1       227 5.00000E-02 7.39000E-02 9.50000E+00
 -1       228 5.00000E-02 1.47800E-01 9.50000E+00
 -1       229 1.00000E-01 7.39000E-02 9.25000E+00
 -1       230 1.00000E-01 1.10850E-01 9.50000E+00
 -1       231 1.00000E-01 1.47800E-01 9.25000E+00
 -1       232 7.50000E-02 7.39000E-02 9.50000E+00
 -1       233 7.50000E-02 1.47800E-01 9.50000E+00
 -1       234 5.00000E-02 7.39000E-02 9.25000E+00
 -1       235 5.00000E-02 1.10850E-01 9.50000E+00
 -1       236 5.00000E-02 1.47800E-01 9.25000E+00
 -1       237 1.00000E-01 7.39000E-02 1.00000E+01
 -1       238 1.00000E-01 1.47800E-01 1.00000E+01
 -1       239 5.00000E-02 7.39000E-02 1.00000E+01
 -1       240 5.00000E-02 1.47800E-01 1.00000E+01
 -1       241 1.00000E-01 7.39000E-02 9.75000E+00
 -1       242 1.00000E-01 1.10850E-01 1.00000E+01
 -1       243 1.00000E-01 1.47800E-01 9.75000E+00
 -1       244 7.50000E-02 7.39000E-02 1.00000E+01
 -1       245 7.50000E-02 1.47800E-01 1.00000E+01
 -1       246 5.00000E-02 7.39000E-02 9.75000E+00
 -1       247 5.00000E-02 1.10850E-01 1.00000E+01
 -1       248 5.00000E-02 1.47800E-01 9.75000E+00
 -1       249 0.00000E+00 1.47800E-01 0.00000E+00
 -1       250 0.00000E+00 7.39000E-02 0.00000E+00
 -1       251 0.00000E+00 7.39000E-02 5.00000E-01
 -1       252 0.00000E+00 1.47800E-01 5.00000E-01
 -1       253 2.50000E-02 1.47800E-01 0.00000E+00
 -1       254 2.50000E-02 7.39000E-02 8.88178E-16
 -1       255 2.50000E-02 7.39000E-02 5.00000E-01
 -1       256 2.50000E-02 1.47800E-01 5.00000E-01
 -1       257 0.00000E+00 1.10850E-01 0.00000E+00
 -1       258 0.00000E+00 7.39000E-02 2.50000E-01
 -1       259 0.00000E+00 1.10850E-01 5.00000E-01
 -1       260 0.00000E+00 1.47800E-01 2.50000E-01
 -1       261 0.00000E+00 7.39000E-02 1.00000E+00
 -1       262 0.00000E+00 1.47800E-01 1.00000E+00
 -1       263 2.50000E-02 7.39000E-02 1.00000E+00
 -1       264 2.50000E-02 1.47800E-01 1.00000E+00
 -1       265 0.00000E+00 7.39000E-02 7.50000E-01
 -1       266 1.38778E-17 1.10850E-01 1.00000E+00
 -1       267 0.00000E+00 1.47800E-01 7.50000E-01
 -1       268 0.00000E+00 7.39000E-02 1.50000E+00
 -1       269 0.00000E+00 1.47800E-01 1.50000E+00
 -1       270 2.50000E-02 7.39000E-02 1.50000E+00
 -1       271 2.50000E-02 1.47800E-01 1.50000E+00
 -1       272 0.00000E+00 7.39000E-02 1.25000E+00
 -1       273 0.00000E+00 1.10850E-01 1.50000E+00
 -1       274 0.00000E+00 1.47800E-01 1.25000E+00
 -1       275 0.00000E+00 7.39000E-02 2.00000E+00
 -1       276 0.00000E+00 1.47800E-01 2.00000E+00
 -1       277 2.50000E-02 7.39000E-02 2.00000E+00
 -1       278 2.50000E-02 1.47800E-01 2.00000E+00
 -1       279 0.00000E+00 7.39000E-02 1.75000E+00
 -1       280 0.00000E+00 1.10850E-01 2.00000E+00
 -1       281 0.00000E+00 1.47800E-01 1.75000E+00
 -1       282 0.00000E+00 7.39000E-02 2.50000E+00
 -1       283 0.00000E+00 1.47800E-01 2.50000E+00
 -1       284 2.50000E-02 7.39000E-02 2.50000E+00
 -1       285 2.50000E-02 1.47800E-01 2.50000E+00
 -1       286 0.00000E+00 7.39000E-02 2.25000E+00
 -1       287 1.38778E-17 1.10850E-01 2.50000E+00
 -1       288 0.00000E+00 1.47800E-01 2.25000E+00
 -1       289 0.00000E+00 7.39000E-02 3.00000E+00
 -1       290 0.00000E+00 1.47800E-01 3.00000E+00
 -1       291 2.50000E-02 7.39000E-02 3.00000E+00
 -1       292 2.50000E-02 1.47800E-01 3.00000E+00
 -1       293 0.00000E+00 7.39000E-02 2.75000E+00
 -1       294-6.93889E-18 1.10850E-01 3.00000E+00
 -1       295 0.00000E+00 1.47800E-01 2.75000E+00
 -1       296 2.08167E-17 7.39000E-02 3.50000E+00
 -1       297 0.00000E+00 1.47800E-01 3.50000E+00
 -1       298 2.50000E-02 7.39000E-02 3.50000E+00
 -1       299 2.50000E-02 1.47800E-01 3.50000E+00
 -1       300 2.08167E-17 7.39000E-02 3.25000E+00
 -1       301 0.00000E+00 1.10850E-01 3.50000E+00
 -1       302 0.00000E+00 1.47800E-01 3.25000E+00
 -1       303 0.00000E+00 7.39000E-02 4.00000E+00
 -1       304 0.00000E+00 1.47800E-01 4.00000E+00
 -1       305 2.50000E-02 7.39000E-02 4.00000E+00
 -1       306 2.50000E-02 1.47800E-01 4.00000E+00
 -1       307 0.00000E+00 7.39000E-02 3.75000E+00
 -1       308-6.93889E-18 1.10850E-01 4.00000E+00
 -1       309 0.00000E+00 1.47800E-01 3.75000E+00
 -1       310 0.00000E+00 7.39000E-02 4.50000E+00
 -1       311 0.00000E+00 1.47800E-01 4.50000E+00
 -1       312 2.50000E-02 7.39000E-02 4.50000E+00
 -1       313 2.50000E-02 1.47800E-01 4.50000E+00
 -1       314 0.00000E+00 7.39000E-02 4.25000E+00
 -1       315 1.38778E-17 1.10850E-01 4.50000E+00
 -1       316 0.00000E+00 1.47800E-01 4.25000E+00
 -1       317 0.00000E+00 7.39000E-02 5.00000E+00
 -1       318 0.00000E+00 1.47800E-01 5.00000E+00
 -1       319 2.50000E-02 7.39000E-02 5.00000E+00
 -1       320 2.50000E-02 1.47800E-01 5.00000E+00
 -1       321 2.08167E-17 7.39000E-02 4.75000E+00
 -1       322 0.00000E+00 1.10850E-01 5.00000E+00
 -1       323 0.00000E+00 1.47800E-01 4.75000E+00
 -1       324 0.00000E+00 7.39000E-02 5.50000E+00
 -1       325 0.00000E+00 1.47800E-01 5.50000E+00
 -1       326 2.50000E-02 7.39000E-02 5.50000E+00
 -1       327 2.50000E-02 1.47800E-01 5.50000E+00
 -1       328 2.08167E-17 7.39000E-02 5.25000E+00
 -1       329 0.00000E+00 1.10850E-01 5.50000E+00
 -1       330 0.00000E+00 1.47800E-01 5.25000E+00
 -1       331 0.00000E+00 7.39000E-02 6.00000E+00
 -1       332 0.00000E+00 1.47800E-01 6.00000E+00
 -1       333 2.50000E-02 7.39000E-02 6.00000E+00
 -1       334 2.50000E-02 1.47800E-01 6.00000E+00
 -1       335 0.00000E+00 7.39000E-02 5.75000E+00
 -1       336 0.00000E+00 1.10850E-01 6.00000E+00
 -1       337 0.00000E+00 1.47800E-01 5.75000E+00
 -1       338 0.00000E+00 7.39000E-02 6.50000E+00
 -1       339 0.00000E+00 1.47800E-01 6.50000E+00
 -1       340 2.50000E-02 7.39000E-02 6.50000E+00
 -1       341 2.50000E-02 1.47800E-01 6.50000E+00
 -1       342 0.00000E+00 7.39000E-02 6.25000E+00
 -1       343 1.38778E-17 1.10850E-01 6.50000E+00
 -1       344 0.00000E+00 1.47800E-01 6.25000E+00
 -1       345 0.00000E+00 7.39000E-02 7.00000E+00
 -1       346 0.00000E+00 1.47800E-01 7.00000E+00
 -1       347 2.50000E-02 7.39000E-02 7.00000E+00
 -1       348 2.50000E-02 1.47800E-01 7.00000E+00
 -1       349 0.00000E+00 7.39000E-02 6.75000E+00
 -1       350 0.00000E+00 1.10850E-01 7.00000E+00
 -1       351 0.00000E+00 1.47800E-01 6.75000E+00
 -1       352 0.00000E+00 7.39000E-02 7.50000E+00
 -1       353 0.00000E+00 1.47800E-01 7.50000E+00
 -1       354 2.50000E-02 7.39000E-02 7.50000E+00
 -1       355 2.50000E-02 1.47800E-01 7.50000E+00
 -1       356 0.00000E+00 7.39000E-02 7.25000E+00
 -1       357 1.38778E-17 1.10850E-01 7.50000E+00
 -1       358 0.00000E+00 1.47800E-01 7.25000E+00
 -1       359 0.00000E+00 7.39000E-02 8.00000E+00
 -1       360 0.00000E+00 1.47800E-01 8.00000E+00
 -1       361 2.50000E-02 7.39000E-02 8.00000E+00
 -1       362 2.50000E-02 1.47800E-01 8.00000E+00
 -1       363 0.00000E+00 7.39000E-02 7.75000E+00
 -1       364 0.00000E+00 1.10850E-01 8.00000E+00
 -1       365 0.00000E+00 1.47800E-01 7.75000E+00
 -1       366 0.00000E+00 7.39000E-02 8.50000E+00
 -1       367 0.00000E+00 1.47800E-01 8.50000E+00
 -1       368 2.50000E-02 7.39000E-02 8.50000E+00
 -1       369 2.50000E-02 1.47800E-01 8.50000E+00
 -1       370 2.08167E-17 7.39000E-02 8.25000E+00
 -1       371 0.00000E+00 1.10850E-01 8.50000E+00
 -1       372 0.00000E+00 1.47800E-01 8.25000E+00
 -1       373 0.00000E+00 7.39000E-02 9.00000E+00
 -1       374 0.00000E+00 1.47800E-01 9.00000E+00
 -1       375 2.50000E-02 7.39000E-02 9.00000E+00
 -1       376 2.50000E-02 1.47800E-01 9.00000E+00
 -1       377 0.00000E+00 7.39000E-02 8.75000E+00
 -1       378 1.38778E-17 1.10850E-01 9.00000E+00
 -1       379 0.00000E+00 1.47800E-01 8.75000E+00
 -1       380-6.93889E-18 7.39000E-02 9.50000E+00
 -1       381 0.00000E+00 1.47800E-01 9.50000E+00
 -1       382 2.50000E-02 7.39000E-02 9.50000E+00
 -1       383 2.50000E-02 1.47800E-01 9.50000E+00
 -1       384-6.93889E-18 7.39000E-02 9.25000E+00
 -1       385 1.38778E-17 1.10850E-01 9.50000E+00
 -1       386 0.00000E+00 1.47800E-01 9.25000E+00
 -1       387 0.00000E+00 7.39000E-02 1.00000E+01
 -1       388 0.00000E+00 1.47800E-01 1.00000E+01
 -1       389 2.50000E-02 7.39000E-02 1.00000E+01
 -1       390 2.50000E-02 1.47800E-01 1.00000E+01
 -1       391 0.00000E+00 7.39000E-02 9.75000E+00
 -1       392 0.00000E+00 1.10850E-01 1.00000E+01
 -1       393 0.00000E+00 1.47800E-01 9.75000E+00
 -1       394 1.00000E-01 0.00000E+00 0.00000E+00
 -1       395 1.00000E-01 0.00000E+00 5.00000E-01
 -1       396 5.00000E-02 0.00000E+00 0.00000E+00
 -1       397 5.00000E-02 1.38778E-17 5.00000E-01
 -1       398 1.00000E-01 3.69500E-02 0.00000E+00
 -1       399 1.00000E-01 0.00000E+00 2.50000E-01
 -1       400 1.00000E-01 3.69500E-02 5.00000E-01
 -1       401 7.50000E-02 0.00000E+00 0.00000E+00
 -1       402 7.50000E-02 0.00000E+00 5.00000E-01
 -1       403 5.00000E-02 3.69500E-02 0.00000E+00
 -1       404 5.00000E-02 1.38778E-17 2.50000E-01
 -1       405 5.00000E-02 3.69500E-02 5.00000E-01
 -1       406 1.00000E-01 0.00000E+00 1.00000E+00
 -1       407 5.00000E-02 1.38778E-17 1.00000E+00
 -1       408 1.00000E-01 0.00000E+00 7.50000E-01
 -1       409 1.00000E-01 3.69500E-02 1.00000E+00
 -1       410 7.50000E-02-1.38778E-17 1.00000E+00
 -1       411 5.00000E-02 1.38778E-17 7.50000E-01
 -1       412 5.00000E-02 3.69500E-02 1.00000E+00
 -1       413 1.00000E-01 0.00000E+00 1.50000E+00
 -1       414 5.00000E-02 1.38778E-17 1.50000E+00
 -1       415 1.00000E-01 0.00000E+00 1.25000E+00
 -1       416 1.00000E-01 3.69500E-02 1.50000E+00
 -1       417 7.50000E-02 1.38778E-17 1.50000E+00
 -1       418 5.00000E-02 1.38778E-17 1.25000E+00
 -1       419 5.00000E-02 3.69500E-02 1.50000E+00
 -1       420 1.00000E-01 0.00000E+00 2.00000E+00
 -1       421 5.00000E-02 1.38778E-17 2.00000E+00
 -1       422 1.00000E-01 0.00000E+00 1.75000E+00
 -1       423 1.00000E-01 3.69500E-02 2.00000E+00
 -1       424 7.50000E-02-1.38778E-17 2.00000E+00
 -1       425 5.00000E-02 1.38778E-17 1.75000E+00
 -1       426 5.00000E-02 3.69500E-02 2.00000E+00
 -1       427 1.00000E-01 0.00000E+00 2.50000E+00
 -1       428 5.00000E-02 1.38778E-17 2.50000E+00
 -1       429 1.00000E-01 0.00000E+00 2.25000E+00
 -1       430 1.00000E-01 3.69500E-02 2.50000E+00
 -1       431 7.50000E-02 1.38778E-17 2.50000E+00
 -1       432 5.00000E-02 1.38778E-17 2.25000E+00
 -1       433 5.00000E-02 3.69500E-02 2.50000E+00
 -1       434 1.00000E-01 0.00000E+00 3.00000E+00
 -1       435 5.00000E-02 1.38778E-17 3.00000E+00
 -1       436 1.00000E-01 0.00000E+00 2.75000E+00
 -1       437 1.00000E-01 3.69500E-02 3.00000E+00
 -1       438 7.50000E-02-1.38778E-17 3.00000E+00
 -1       439 5.00000E-02 1.38778E-17 2.75000E+00
 -1       440 5.00000E-02 3.69500E-02 3.00000E+00
 -1       441 1.00000E-01 0.00000E+00 3.50000E+00
 -1       442 5.00000E-02-1.38778E-17 3.50000E+00
 -1       443 1.00000E-01 0.00000E+00 3.25000E+00
 -1       444 1.00000E-01 3.69500E-02 3.50000E+00
 -1       445 7.50000E-02-2.77556E-17 3.50000E+00
 -1       446 5.00000E-02-1.38778E-17 3.25000E+00
 -1       447 5.00000E-02 3.69500E-02 3.50000E+00
 -1       448 1.00000E-01 0.00000E+00 4.00000E+00
 -1       449 5.00000E-02 1.38778E-17 4.00000E+00
 -1       450 1.00000E-01 0.00000E+00 3.75000E+00
 -1       451 1.00000E-01 3.69500E-02 4.00000E+00
 -1       452 7.50000E-02-1.38778E-17 4.00000E+00
 -1       453 5.00000E-02 1.38778E-17 3.75000E+00
 -1       454 5.00000E-02 3.69500E-02 4.00000E+00
 -1       455 1.00000E-01 0.00000E+00 4.50000E+00
 -1       456 5.00000E-02-1.38778E-17 4.50000E+00
 -1       457 1.00000E-01 0.00000E+00 4.25000E+00
 -1       458 1.00000E-01 3.69500E-02 4.50000E+00
 -1       459 7.50000E-02-1.38778E-17 4.50000E+00
 -1       460 5.00000E-02 1.38778E-17 4.25000E+00
 -1       461 5.00000E-02 3.69500E-02 4.50000E+00
 -1       462 1.00000E-01 0.00000E+00 5.00000E+00
 -1       463 5.00000E-02 1.38778E-17 5.00000E+00
 -1       464 1.00000E-01 0.00000E+00 4.75000E+00
 -1       465 1.00000E-01 3.69500E-02 5.00000E+00
 -1       466 7.50000E-02 1.38778E-17 5.00000E+00
 -1       467 5.00000E-02 1.38778E-17 4.75000E+00
 -1       468 5.00000E-02 3.69500E-02 5.00000E+00
 -1       469 1.00000E-01 0.00000E+00 5.50000E+00
 -1       470 5.00000E-02 1.38778E-17 5.50000E+00
 -1       471 1.00000E-01 0.00000E+00 5.25000E+00
 -1       472 1.00000E-01 3.69500E-02 5.50000E+00
 -1       473 7.50000E-02 1.38778E-17 5.50000E+00
 -1       474 5.00000E-02 1.38778E-17 5.25000E+00
 -1       475 5.00000E-02 3.69500E-02 5.50000E+00
 -1       476 1.00000E-01 0.00000E+00 6.00000E+00
 -1       477 5.00000E-02-1.38778E-17 6.00000E+00
 -1       478 1.00000E-01 0.00000E+00 5.75000E+00
 -1       479 1.00000E-01 3.69500E-02 6.00000E+00
 -1       480 7.50000E-02-2.77556E-17 6.00000E+00
 -1       481 5.00000E-02-1.38778E-17 5.75000E+00
 -1       482 5.00000E-02 3.69500E-02 6.00000E+00
 -1       483 1.00000E-01 0.00000E+00 6.50000E+00
 -1       484 5.00000E-02 1.38778E-17 6.50000E+00
 -1       485 1.00000E-01 0.00000E+00 6.25000E+00
 -1       486 1.00000E-01 3.69500E-02 6.50000E+00
 -1       487 7.50000E-02 1.38778E-17 6.50000E+00
 -1       488 5.00000E-02 1.38778E-17 6.25000E+00
 -1       489 5.00000E-02 3.69500E-02 6.50000E+00
 -1       490 1.00000E-01 0.00000E+00 7.00000E+00
 -1       491 5.00000E-02-2.77556E-17 7.00000E+00
 -1       492 1.00000E-01 0.00000E+00 6.75000E+00
 -1       493 1.00000E-01 3.69500E-02 7.00000E+00
 -1       494 7.50000E-02-1.38778E-17 7.00000E+00
 -1       495 5.00000E-02 1.38778E-17 6.75000E+00
 -1       496 5.00000E-02 3.69500E-02 7.00000E+00
 -1       497 1.00000E-01 0.00000E+00 7.50000E+00
 -1       498 5.00000E-02 1.38778E-17 7.50000E+00
 -1       499 1.00000E-01 0.00000E+00 7.25000E+00
 -1       500 1.00000E-01 3.69500E-02 7.50000E+00
 -1       501 7.50000E-02 1.38778E-17 7.50000E+00
 -1       502 5.00000E-02 0.00000E+00 7.25000E+00
 -1       503 5.00000E-02 3.69500E-02 7.50000E+00
 -1       504 1.00000E-01 0.00000E+00 8.00000E+00
 -1       505 5.00000E-02 1.38778E-17 8.00000E+00
 -1       506 1.00000E-01 0.00000E+00 7.75000E+00
 -1       507 1.00000E-01 3.69500E-02 8.00000E+00
 -1       508 7.50000E-02-1.38778E-17 8.00000E+00
 -1       509 5.00000E-02 1.38778E-17 7.75000E+00
 -1       510 5.00000E-02 3.69500E-02 8.00000E+00
 -1       511 1.00000E-01 0.00000E+00 8.50000E+00
 -1       512 5.00000E-02 1.38778E-17 8.50000E+00
 -1       513 1.00000E-01 0.00000E+00 8.25000E+00
 -1       514 1.00000E-01 3.69500E-02 8.50000E+00
 -1       515 7.50000E-02 0.00000E+00 8.50000E+00
 -1       516 5.00000E-02 1.38778E-17 8.25000E+00
 -1       517 5.00000E-02 3.69500E-02 8.50000E+00
 -1       518 1.00000E-01 0.00000E+00 9.00000E+00
 -1       519 5.00000E-02 1.38778E-17 9.00000E+00
 -1       520 1.00000E-01 0.00000E+00 8.75000E+00
 -1       521 1.00000E-01 3.69500E-02 9.00000E+00
 -1       522 7.50000E-02 0.00000E+00 9.00000E+00
 -1       523 5.00000E-02 1.38778E-17 8.75000E+00
 -1       524 5.00000E-02 3.69500E-02 9.00000E+00
 -1       525 1.00000E-01 0.00000E+00 9.50000E+00
 -1       526 5.00000E-02 1.38778E-17 9.50000E+00
 -1       527 1.00000E-01 0.00000E+00 9.25000E+00
 -1       528 1.00000E-01 3.69500E-02 9.50000E+00
 -1       529 7.50000E-02 0.00000E+00 9.50000E+00
 -1       530 5.00000E-02 1.38778E-17 9.25000E+00
 -1       531 5.00000E-02 3.69500E-02 9.50000E+00
 -1       532 1.00000E-01 0.00000E+00 1.00000E+01
 -1       533 5.00000E-02 0.00000E+00 1.00000E+01
 -1       534 1.00000E-01 0.00000E+00 9.75000E+00
 -1       535 1.00000E-01 3.69500E-02 1.00000E+01
 -1       536 7.50000E-02 0.00000E+00 1.00000E+01
 -1       537 5.00000E-02 1.38778E-17 9.75000E+00
 -1       538 5.00000E-02 3.69500E-02 1.00000E+01
 -1       539 0.00000E+00 0.00000E+00 0.00000E+00
 -1       540 0.00000E+00 0.00000E+00 5.00000E-01
 -1       541 2.50000E-02 0.00000E+00 0.00000E+00
 -1       542 2.50000E-02 0.00000E+00 5.00000E-01
 -1       543 0.00000E+00 3.69500E-02 0.00000E+00
 -1       544 0.00000E+00 0.00000E+00 2.50000E-01
 -1       545 0.00000E+00 3.69500E-02 5.00000E-01
 -1       546 0.00000E+00 0.00000E+00 1.00000E+00
 -1       547 2.50000E-02 0.00000E+00 1.00000E+00
 -1       548 0.00000E+00 0.00000E+00 7.50000E-01
 -1       549 0.00000E+00 3.69500E-02 1.00000E+00
 -1       550 0.00000E+00 0.00000E+00 1.50000E+00
 -1       551 2.50000E-02 0.00000E+00 1.50000E+00
 -1       552 0.00000E+00 0.00000E+00 1.25000E+00
 -1       553 0.00000E+00 3.69500E-02 1.50000E+00
 -1       554 0.00000E+00 0.00000E+00 2.00000E+00
 -1       555 2.50000E-02 0.00000E+00 2.00000E+00
 -1       556 0.00000E+00 0.00000E+00 1.75000E+00
 -1       557-6.93889E-18 3.69500E-02 2.00000E+00
 -1       558 0.00000E+00 0.00000E+00 2.50000E+00
 -1       559 2.50000E-02 0.00000E+00 2.50000E+00
 -1       560 0.00000E+00 0.00000E+00 2.25000E+00
 -1       561 0.00000E+00 3.69500E-02 2.50000E+00
 -1       562 0.00000E+00 0.00000E+00 3.00000E+00
 -1       563 2.50000E-02-1.38778E-17 3.00000E+00
 -1       564 0.00000E+00 0.00000E+00 2.75000E+00
 -1       565 0.00000E+00 3.69500E-02 3.00000E+00
 -1       566 0.00000E+00 0.00000E+00 3.50000E+00
 -1       567 2.50000E-02-2.77556E-17 3.50000E+00
 -1       568 0.00000E+00 0.00000E+00 3.25000E+00
 -1       569 0.00000E+00 3.69500E-02 3.50000E+00
 -1       570 0.00000E+00 0.00000E+00 4.00000E+00
 -1       571 2.50000E-02-1.38778E-17 4.00000E+00
 -1       572 0.00000E+00 0.00000E+00 3.75000E+00
 -1       573 0.00000E+00 3.69500E-02 4.00000E+00
 -1       574 0.00000E+00 0.00000E+00 4.50000E+00
 -1       575 2.50000E-02-1.38778E-17 4.50000E+00
 -1       576 0.00000E+00 0.00000E+00 4.25000E+00
 -1       577 0.00000E+00 3.69500E-02 4.50000E+00
 -1       578 0.00000E+00 0.00000E+00 5.00000E+00
 -1       579 2.50000E-02 1.38778E-17 5.00000E+00
 -1       580 0.00000E+00 0.00000E+00 4.75000E+00
 -1       581 0.00000E+00 3.69500E-02 5.00000E+00
 -1       582 0.00000E+00 0.00000E+00 5.50000E+00
 -1       583 2.50000E-02 1.38778E-17 5.50000E+00