    1C
    1UUSER                                                              
    1UDATE              25.december.2019                                
    1UTIME              22:28:02                                        
    1UHOST                                                              
    1UPGM               CalculiX                                        
    1UVERSION           Version 2.11                             
    1UCOMPILETIME       So 31. Jul 13:26:31 CEST 2016                    
    1UDIR                                                               
    1UDBN                                                               
    1UMAT    1STEEL                                                     
    2C                           321                                     1
 -1         1 1.00000E-01 1.47800E-01 0.00000E+00
 -1         2 1.00000E-01 7.39000E-02 0.00000E+00
 -1         3 1.00000E-01 7.39000E-02 1.00000E+00
 -1         4 1.00000E-01 1.47800E-01 1.00000E+00
 -1         5 5.00000E-02 1.47800E-01 0.00000E+00
 -1         6 5.00000E-02 7.39000E-02-1.77636E-15
 -1         7 5.00000E-02 7.39000E-02 1.00000E+00
 -1         8 5.00000E-02 1.47800E-01 1.00000E+00
 -1         9 1.00000E-01 1.10850E-01 0.00000E+00
 -1        10 1.00000E-01 7.39000E-02 5.00000E-01
 -1        11 1.00000E-01 1.10850E-01 1.00000E+00
 -1        12 1.00000E-01 1.47800E-01 5.00000E-01
 -1        13 7.50000E-02 1.47800E-01 0.00000E+00
 -1        14 7.50000E-02 7.39000E-02 0.00000E+00
 -1        15 7.50000E-02 7.39000E-02 1.00000E+00
 -1        16 7.50000E-02 1.47800E-01 1.00000E+00
 -1        17 5.00000E-02 1.10850E-01 8.88178E-16
 -1        18 5.00000E-02 7.39000E-02 5.00000E-01
 -1        19 5.00000E-02 1.10850E-01 1.00000E+00
 -1        20 5.00000E-02 1.47800E-01 5.00000E-01
 -1        21 1.00000E-01 7.39000E-02 2.00000E+00
 -1        22 1.00000E-01 1.47800E-01 2.00000E+00
 -1        23 5.00000E-02 7.39000E-02 2.00000E+00
 -1        24 5.00000E-02 1.47800E-01 2.00000E+00
 -1        25 1.00000E-01 7.39000E-02 1.50000E+00
 -1        26 1.00000E-01 1.10850E-01 2.00000E+00
 -1        27 1.00000E-01 1.47800E-01 1.50000E+00
 -1        28 7.50000E-02 7.39000E-02 2.00000E+00
 -1        29 7.50000E-02 1.47800E-01 2.00000E+00
 -1        30 5.00000E-02 7.39000E-02 1.50000E+00
 -1        31 5.00000E-02 1.10850E-01 2.00000E+00
 -1        32 5.00000E-02 1.47800E-01 1.50000E+00
 -1        33 1.00000E-01 7.39000E-02 3.00000E+00
 -1        34 1.00000E-01 1.47800E-01 3.00000E+00
 -1        35 5.00000E-02 7.39000E-02 3.00000E+00
 -1        36 5.00000E-02 1.47800E-01 3.00000E+00
 -1        37 1.00000E-01 7.39000E-02 2.50000E+00
 -1        38 1.00000E-01 1.10850E-01 3.00000E+00
 -1        39 1.00000E-01 1.47800E-01 2.50000E+00
 -1        40 7.50000E-02 7.39000E-02 3.00000E+00
 -1        41 7.50000E-02 1.47800E-01 3.00000E+00
 -1        42 5.00000E-02 7.39000E-02 2.50000E+00
 -1        43 5.00000E-02 1.10850E-01 3.00000E+00
 -1        44 5.00000E-02 1.47800E-01 2.50000E+00
 -1        45 1.00000E-01 7.39000E-02 4.00000E+00
 -1        46 1.00000E-01 1.47800E-01 4.00000E+00
 -1        47 5.00000E-02 7.39000E-02 4.00000E+00
 -1        48 5.00000E-02 1.47800E-01 4.00000E+00
 -1        49 1.00000E-01 7.39000E-02 3.50000E+00
 -1        50 1.00000E-01 1.10850E-01 4.00000E+00
 -1        51 1.00000E-01 1.47800E-01 3.50000E+00
 -1        52 7.50000E-02 7.39000E-02 4.00000E+00
 -1        53 7.50000E-02 1.47800E-01 4.00000E+00
 -1        54 5.00000E-02 7.39000E-02 3.50000E+00
 -1        55 5.00000E-02 1.10850E-01 4.00000E+00
 -1        56 5.00000E-02 1.47800E-01 3.50000E+00
 -1        57 1.00000E-01 7.39000E-02 5.00000E+00
 -1        58 1.00000E-01 1.47800E-01 5.00000E+00
 -1        59 5.00000E-02 7.39000E-02 5.00000E+00
 -1        60 5.00000E-02 1.47800E-01 5.00000E+00
 -1        61 1.00000E-01 7.39000E-02 4.50000E+00
 -1        62 1.00000E-01 1.10850E-01 5.00000E+00
 -1        63 1.00000E-01 1.47800E-01 4.50000E+00
 -1        64 7.50000E-02 7.39000E-02 5.00000E+00
 -1        65 7.50000E-02 1.47800E-01 5.00000E+00
 -1        66 5.00000E-02 7.39000E-02 4.50000E+00
 -1        67 5.00000E-02 1.10850E-01 5.00000E+00
 -1        68 5.00000E-02 1.47800E-01 4.50000E+00
 -1        69 1.00000E-01 7.39000E-02 6.00000E+00
 -1        70 1.00000E-01 1.47800E-01 6.00000E+00
 -1        71 5.00000E-02 7.39000E-02 6.00000E+00
 -1        72 5.00000E-02 1.47800E-01 6.00000E+00
 -1        73 1.00000E-01 7.39000E-02 5.50000E+00
 -1        74 1.00000E-01 1.10850E-01 6.00000E+00
 -1        75 1.00000E-01 1.47800E-01 5.50000E+00
 -1        76 7.50000E-02 7.39000E-02 6.00000E+00
 -1        77 7.50000E-02 1.47800E-01 6.00000E+00
 -1        78 5.00000E-02 7.39000E-02 5.50000E+00
 -1        79 5.00000E-02 1.10850E-01 6.00000E+00
 -1        80 5.00000E-02 1.47800E-01 5.50000E+00
 -1        81 1.00000E-01 7.39000E-02 7.00000E+00
 -1        82 1.00000E-01 1.47800E-01 7.00000E+00
 -1        83 5.00000E-02 7.39000E-02 7.00000E+00
 -1        84 5.00000E-02 1.47800E-01 7.00000E+00
 -1        85 1.00000E-01 7.39000E-02 6.50000E+00
 -1        86 1.00000E-01 1.10850E-01 7.00000E+00
 -1        87 1.00000E-01 1.47800E-01 6.50000E+00
 -1        88 7.50000E-02 7.39000E-02 7.00000E+00
 -1        89 7.50000E-02 1.47800E-01 7.00000E+00
 -1        90 5.00000E-02 7.39000E-02 6.50000E+00
 -1        91 5.00000E-02 1.10850E-01 7.00000E+00
 -1        92 5.00000E-02 1.47800E-01 6.50000E+00
 -1        93 1.00000E-01 7.39000E-02 8.00000E+00
 -1        94 1.00000E-01 1.47800E-01 8.00000E+00
 -1        95 5.00000E-02 7.39000E-02 8.00000E+00
 -1        96 5.00000E-02 1.47800E-01 8.00000E+00
 -1        97 1.00000E-01 7.39000E-02 7.50000E+00
 -1        98 1.00000E-01 1.10850E-01 8.00000E+00
 -1        99 1.00000E-01 1.47800E-01 7.50000E+00
 -1       100 7.50000E-02 7.39000E-02 8.00000E+00
 -1       101 7.50000E-02 1.47800E-01 8.00000E+00
 -1       102 5.00000E-02 7.39000E-02 7.50000E+00
 -1       103 5.00000E-02 1.10850E-01 8.00000E+00
 -1       104 5.00000E-02 1.47800E-01 7.50000E+00
 -1       105 1.00000E-01 7.39000E-02 9.00000E+00
 -1       106 1.00000E-01 1.47800E-01 9.00000E+00
 -1       107 5.00000E-02 7.39000E-02 9.00000E+00
 -1       108 5.00000E-02 1.47800E-01 9.00000E+00
 -1       109 1.00000E-01 7.39000E-02 8.50000E+00
 -1       110 1.00000E-01 1.10850E-01 9.00000E+00
 -1       111 1.00000E-01 1.47800E-01 8.50000E+00
 -1       112 7.50000E-02 7.39000E-02 9.00000E+00
 -1       113 7.50000E-02 1.47800E-01 9.00000E+00
 -1       114 5.00000E-02 7.39000E-02 8.50000E+00
 -1       115 5.00000E-02 1.10850E-01 9.00000E+00
 -1       116 5.00000E-02 1.47800E-01 8.50000E+00
 -1       117 1.00000E-01 7.39000E-02 1.00000E+01
 -1       118 1.00000E-01 1.47800E-01 1.00000E+01
 -1       119 5.00000E-02 7.39000E-02 1.00000E+01
 -1       120 5.00000E-02 1.47800E-01 1.00000E+01
 -1       121 1.00000E-01 7.39000E-02 9.50000E+00
 -1       122 1.00000E-01 1.10850E-01 1.00000E+01
 -1       123 1.00000E-01 1.47800E-01 9.50000E+00
 -1       124 7.50000E-02 7.39000E-02 1.00000E+01
 -1       125 7.50000E-02 1.47800E-01 1.00000E+01
 -1       126 5.00000E-02 7.39000E-02 9.50000E+00
 -1       127 5.00000E-02 1.10850E-01 1.00000E+01
 -1       128 5.00000E-02 1.47800E-01 9.50000E+00
 -1       129 0.00000E+00 1.47800E-01 0.00000E+00
 -1       130 0.00000E+00 7.39000E-02 0.00000E+00
 -1       131 0.00000E+00 7.39000E-02 1.00000E+00
 -1       132 0.00000E+00 1.47800E-01 1.00000E+00
 -1       133 2.50000E-02 1.47800E-01 0.00000E+00
 -1       134 2.50000E-02 7.39000E-02 8.88178E-16
 -1       135 2.50000E-02 7.39000E-02 1.00000E+00
 -1       136 2.50000E-02 1.47800E-01 1.00000E+00
 -1       137 0.00000E+00 1.10850E-01 0.00000E+00
 -1       138 0.00000E+00 7.39000E-02 5.00000E-01
 -1       139 1.38778E-17 1.10850E-01 1.00000E+00
 -1       140 0.00000E+00 1.47800E-01 5.00000E-01
 -1       141 0.00000E+00 7.39000E-02 2.00000E+00
 -1       142 0.00000E+00 1.47800E-01 2.00000E+00
 -1       143 2.50000E-02 7.39000E-02 2.00000E+00
 -1       144 2.50000E-02 1.47800E-01 2.00000E+00
 -1       145 0.00000E+00 7.39000E-02 1.50000E+00
 -1       146 0.00000E+00 1.10850E-01 2.00000E+00
 -1       147 0.00000E+00 1.47800E-01 1.50000E+00
 -1       148 0.00000E+00 7.39000E-02 3.00000E+00
 -1       149 0.00000E+00 1.47800E-01 3.00000E+00
 -1       150 2.50000E-02 7.39000E-02 3.00000E+00
 -1       151 2.50000E-02 1.47800E-01 3.00000E+00
 -1       152 0.00000E+00 7.39000E-02 2.50000E+00
 -1       153-6.93889E-18 1.10850E-01 3.00000E+00
 -1       154 0.00000E+00 1.47800E-01 2.50000E+00
 -1       155 0.00000E+00 7.39000E-02 4.00000E+00
 -1       156 0.00000E+00 1.47800E-01 4.00000E+00
 -1       157 2.50000E-02 7.39000E-02 4.00000E+00
 -1       158 2.50000E-02 1.47800E-01 4.00000E+00
 -1       159 2.08167E-17 7.39000E-02 3.50000E+00
 -1       160-6.93889E-18 1.10850E-01 4.00000E+00
 -1       161 0.00000E+00 1.47800E-01 3.50000E+00
 -1       162 0.00000E+00 7.39000E-02 5.00000E+00
 -1       163 0.00000E+00 1.47800E-01 5.00000E+00
 -1       164 2.50000E-02 7.39000E-02 5.00000E+00
 -1       165 2.50000E-02 1.47800E-01 5.00000E+00
 -1       166 0.00000E+00 7.39000E-02 4.50000E+00
 -1       167 0.00000E+00 1.10850E-01 5.00000E+00
 -1       168 0.00000E+00 1.47800E-01 4.50000E+00
 -1       169 0.00000E+00 7.39000E-02 6.00000E+00
 -1       170 0.00000E+00 1.47800E-01 6.00000E+00
 -1       171 2.50000E-02 7.39000E-02 6.00000E+00
 -1       172 2.50000E-02 1.47800E-01 6.00000E+00
 -1       173 0.00000E+00 7.39000E-02 5.50000E+00
 -1       174 0.00000E+00 1.10850E-01 6.00000E+00
 -1       175 0.00000E+00 1.47800E-01 5.50000E+00
 -1       176 0.00000E+00 7.39000E-02 7.00000E+00
 -1       177 0.00000E+00 1.47800E-01 7.00000E+00
 -1       178 2.50000E-02 7.39000E-02 7.00000E+00
 -1       179 2.50000E-02 1.47800E-01 7.00000E+00
 -1       180 0.00000E+00 7.39000E-02 6.50000E+00
 -1       181 0.00000E+00 1.10850E-01 7.00000E+00
 -1       182 0.00000E+00 1.47800E-01 6.50000E+00
 -1       183 0.00000E+00 7.39000E-02 8.00000E+00
 -1       184 0.00000E+00 1.47800E-01 8.00000E+00
 -1       185 2.50000E-02 7.39000E-02 8.00000E+00
 -1       186 2.50000E-02 1.47800E-01 8.00000E+00
 -1       187 0.00000E+00 7.39000E-02 7.50000E+00
 -1       188 0.00000E+00 1.10850E-01 8.00000E+00
 -1       189 0.00000E+00 1.47800E-01 7.50000E+00
 -1       190 0.00000E+00 7.39000E-02 9.00000E+00
 -1       191 0.00000E+00 1.47800E-01 9.00000E+00
 -1       192 2.50000E-02 7.39000E-02 9.00000E+00
 -1       193 2.50000E-02 1.47800E-01 9.00000E+00
 -1       194 0.00000E+00 7.39000E-02 8.50000E+00
 -1       195 1.38778E-17 1.10850E-01 9.00000E+00
 -1       196 0.00000E+00 1.47800E-01 8.50000E+00
 -1       197 0.00000E+00 7.39000E-02 1.00000E+01
 -1       198 0.00000E+00 1.47800E-01 1.00000E+01
 -1       199 2.50000E-02 7.39000E-02 1.00000E+01
 -1       200 2.50000E-02 1.47800E-01 1.00000E+01
 -1       201-6.93889E-18 7.39000E-02 9.50000E+00
 -1       202 0.00000E+00 1.10850E-01 1.00000E+01
 -1       203 0.00000E+00 1.47800E-01 9.50000E+00
 -1       204 1.00000E-01 0.00000E+00 0.00000E+00
 -1       205 1.00000E-01 0.00000E+00 1.00000E+00
 -1       206 5.00000E-02 0.00000E+00 0.00000E+00
 -1       207 5.00000E-02 1.38778E-17 1.00000E+00
 -1       208 1.00000E-01 3.69500E-02 0.00000E+00
 -1       209 1.00000E-01 0.00000E+00 5.00000E-01
 -1       210 1.00000E-01 3.69500E-02 1.00000E+00
 -1       211 7.50000E-02 0.00000E+00 0.00000E+00
 -1       212 7.50000E-02-1.38778E-17 1.00000E+00
 -1       213 5.00000E-02 3.69500E-02 0.00000E+00
 -1       214 5.00000E-02 1.38778E-17 5.00000E-01
 -1       215 5.00000E-02 3.69500E-02 1.00000E+00
 -1       216 1.00000E-01 0.00000E+00 2.00000E+00
 -1       217 5.00000E-02 1.38778E-17 2.00000E+00
 -1       218 1.00000E-01 0.00000E+00 1.50000E+00
 -1       219 1.00000E-01 3.69500E-02 2.00000E+00
 -1       220 7.50000E-02-1.38778E-17 2.00000E+00
 -1       221 5.00000E-02 1.38778E-17 1.50000E+00
 -1       222 5.00000E-02 3.69500E-02 2.00000E+00
 -1       223 1.00000E-01 0.00000E+00 3.00000E+00
 -1       224 5.00000E-02 1.38778E-17 3.00000E+00
 -1       225 1.00000E-01 0.00000E+00 2.50000E+00
 -1       226 1.00000E-01 3.69500E-02 3.00000E+00
 -1       227 7.50000E-02-1.38778E-17 3.00000E+00
 -1       228 5.00000E-02 1.38778E-17 2.50000E+00
 -1       229 5.00000E-02 3.69500E-02 3.00000E+00
 -1       230 1.00000E-01 0.00000E+00 4.00000E+00
 -1       231 5.00000E-02 1.38778E-17 4.00000E+00
 -1       232 1.00000E-01 0.00000E+00 3.50000E+00
 -1       233 1.00000E-01 3.69500E-02 4.00000E+00
 -1       234 7.50000E-02-1.38778E-17 4.00000E+00
 -1       235 5.00000E-02-1.38778E-17 3.50000E+00
 -1       236 5.00000E-02 3.69500E-02 4.00000E+00
 -1       237 1.00000E-01 0.00000E+00 5.00000E+00
 -1       238 5.00000E-02 1.38778E-17 5.00000E+00
 -1       239 1.00000E-01 0.00000E+00 4.50000E+00
 -1       240 1.00000E-01 3.69500E-02 5.00000E+00
 -1       241 7.50000E-02 1.38778E-17 5.00000E+00
 -1       242 5.00000E-02-1.38778E-17 4.50000E+00
 -1       243 5.00000E-02 3.69500E-02 5.00000E+00
 -1       244 1.00000E-01 0.00000E+00 6.00000E+00
 -1       245 5.00000E-02-1.38778E-17 6.00000E+00
 -1       246 1.00000E-01 0.00000E+00 5.50000E+00
 -1       247 1.00000E-01 3.69500E-02 6.00000E+00
 -1       248 7.50000E-02-2.77556E-17 6.00000E+00
 -1       249 5.00000E-02 1.38778E-17 5.50000E+00
 -1       250 5.00000E-02 3.69500E-02 6.00000E+00
 -1       251 1.00000E-01 0.00000E+00 7.00000E+00
 -1       252 5.00000E-02-2.77556E-17 7.00000E+00
 -1       253 1.00000E-01 0.00000E+00 6.50000E+00
 -1       254 1.00000E-01 3.69500E-02 7.00000E+00
 -1       255 7.50000E-02-1.38778E-17 7.00000E+00
 -1       256 5.00000E-02 1.38778E-17 6.50000E+00
 -1       257 5.00000E-02 3.69500E-02 7.00000E+00
 -1       258 1.00000E-01 0.00000E+00 8.00000E+00
 -1       259 5.00000E-02 1.38778E-17 8.00000E+00
 -1       260 1.00000E-01 0.00000E+00 7.50000E+00
 -1       261 1.00000E-01 3.69500E-02 8.00000E+00
 -1       262 7.50000E-02-1.38778E-17 8.00000E+00
 -1       263 5.00000E-02 1.38778E-17 7.50000E+00
 -1       264 5.00000E-02 3.69500E-02 8.00000E+00
 -1       265 1.00000E-01 0.00000E+00 9.00000E+00
 -1       266 5.00000E-02 1.38778E-17 9.00000E+00
 -1       267 1.00000E-01 0.00000E+00 8.50000E+00
 -1       268 1.00000E-01 3.69500E-02 9.00000E+00
 -1       269 7.50000E-02 0.00000E+00 9.00000E+00
 -1       270 5.00000E-02 1.38778E-17 8.50000E+00
 -1       271 5.00000E-02 3.69500E-02 9.00000E+00
 -1       272 1.00000E-01 0.00000E+00 1.00000E+01
 -1       273 5.00000E-02 0.00000E+00 1.00000E+01
 -1       274 1.00000E-01 0.00000E+00 9.50000E+00
 -1       275 1.00000E-01 3.69500E-02 1.00000E+01
 -1       276 7.50000E-02 0.00000E+00 1.00000E+01
 -1       277 5.00000E-02 1.38778E-17 9.50000E+00
 -1       278 5.00000E-02 3.69500E-02 1.00000E+01
 -1       279 0.00000E+00 0.00000E+00 0.00000E+00
 -1       280 0.00000E+00 0.00000E+00 1.00000E+00
 -1       281 2.50000E-02 0.00000E+00 0.00000E+00
 -1       282 2.50000E-02 0.00000E+00 1.00000E+00
 -1       283 0.00000E+00 3.69500E-02 0.00000E+00
 -1       284 0.00000E+00 0.00000E+00 5.00000E-01
 -1       285 0.00000E+00 3.69500E-02 1.00000E+00
 -1       286 0.00000E+00 0.00000E+00 2.00000E+00
 -1       287 2.50000E-02 0.00000E+00 2.00000E+00
 -1       288 0.00000E+00 0.00000E+00 1.50000E+00
 -1       289-6.93889E-18 3.69500E-02 2.00000E+00
 -1       290 0.00000E+00 0.00000E+00 3.00000E+00
 -1       291 2.50000E-02-1.38778E-17 3.00000E+00
 -1       292 0.00000E+00 0.00000E+00 2.50000E+00
 -1       293 0.00000E+00 3.69500E-02 3.00000E+00
 -1       294 0.00000E+00 0.00000E+00 4.00000E+00
 -1       295 2.50000E-02-1.38778E-17 4.00000E+00
 -1       296 0.00000E+00 0.00000E+00 3.50000E+00
 -1       297 0.00000E+00 3.69500E-02 4.00000E+00
 -1       298 0.00000E+00 0.00000E+00 5.00000E+00
 -1       299 2.50000E-02 1.38778E-17 5.00000E+00
 -1       300 0.00000E+00 0.00000E+00 4.50000E+00
 -1       301 0.00000E+00 3.69500E-02 5.00000E+00
 -1       302 0.00000E+00 0.00000E+00 6.00000E+00
 -1       303 2.50000E-02-2.77556E-17 6.00000E+00
 -1       304 0.00000E+00 0.00000E+00 5.50000E+00
 -1       305 0.00000E+00 3.69500E-02 6.00000E+00
 -1       306 0.00000E+00 0.00000E+00 7.00000E+00
 -1       307 2.50000E-02-1.38778E-17 7.00000E+00
 -1       308 0.00000E+00 0.00000E+00 6.50000E+00
 -1       309 0.00000E+00 3.69500E-02 7.00000E+00
 -1       310 0.00000E+00 0.00000E+00 8.00000E+00
 -1       311 2.50000E-02-1.38778E-17 8.00000E+00
 -1       312 0.00000E+00 0.00000E+00 7.50000E+00
 -1       313 0.00000E+00 3.69500E-02 8.00000E+00
 -1       314 0.00000E+00 0.00000E+00 9.00000E+00
 -1       315 2.50000E-02 0.00000E+00 9.00000E+00
 -1       316 0.00000E+00 0.00000E+00 8.50000E+00
 -1       317-6.93889E-18 3.69500E-02 9.00000E+00
 -1       318 0.00000E+00 0.00000E+00 1.00000E+01
 -1       319 2.50000E-02 0.00000E+00 1.00000E+01
 -1       320 0.00000E+00 0.00000E+00 9.50000E+00
 -1       321 0.00000E+00 3.69500E-02 1.00000E+01
 -3
    3C                            40                                     1
 -1         1    4    0    1
 -2         1         2         3         4         5         6         7         8         9        10
 -2        11        12        13        14        15        16        17        18        19        20
 -1         2    4    0    1
 -2         4         3        21        22         8         7        23        24        11        25
 -2        26        27        16        15        28        29        19        30        31        32
 -1         3    4    0    1
 -2        22        21        33        34        24        23        35        36        26        37
 -2        38        39        29        28        40        41        31        42        43        44
 -1         4    4    0    1
 -2        34        33        45        46        36        35        47        48        38        49
 -2        50        51        41        40        52        53        43        54        55        56
 -1         5    4    0    1
 -2        46        45        57        58        48        47        59        60        50        61
 -2        62        63        53        52        64        65        55        66        67        68
 -1         6    4    0    1
 -2        58        57        69        70        60        59        71        72        62        73
 -2        74        75        65        64        76        77        67        78        79        80
 -1         7    4    0    1
 -2        70        69        81        82        72        71        83        84        74        85
 -2        86        87        77        76        88        89        79        90        91        92
 -1         8    4    0    1
 -2        82        81        93        94        84        83        95        96        86        97
 -2        98        99        89        88       100       101        91       102       103       104
 -1         9    4    0    1
 -2        94        93       105       106        96        95       107       108        98       109
 -2       110       111       101       100       112       113       103       114       115       116
 -1        10    4    0    1
 -2       106       105       117       118       108       107       119       120       110       121
 -2       122       123       113       112       124       125       115       126       127       128
 -1        11    4    0    1
 -2         5         6         7         8       129       130       131       132        17        18
 -2        19        20       133       134       135       136       137       138       139       140
 -1        12    4    0    1
 -2         8         7        23        24       132       131       141       142        19        30
 -2        31        32       136       135       143       144       139       145       146       147
 -1        13    4    0    1
 -2        24        23        35        36       142       141       148       149        31        42
 -2        43        44       144       143       150       151       146       152       153       154
 -1        14    4    0    1
 -2        36        35        47        48       149       148       155       156        43        54
 -2        55        56       151       150       157       158       153       159       160       161
 -1        15    4    0    1
 -2        48        47        59        60       156       155       162       163        55        66
 -2        67        68       158       157       164       165       160       166       167       168
 -1        16    4    0    1
 -2        60        59        71        72       163       162       169       170        67        78
 -2        79        80       165       164       171       172       167       173       174       175
 -1        17    4    0    1
 -2        72        71        83        84       170       169       176       177        79        90
 -2        91        92       172       171       178       179       174       180       181       182
 -1        18    4    0    1
 -2        84        83        95        96       177       176       183       184        91       102
 -2       103       104       179       178       185       186       181       187       188       189
 -1        19    4    0    1
 -2        96        95       107       108       184       183       190       191       103       114
 -2       115       116       186       185       192       193       188       194       195       196
 -1        20    4    0    1
 -2       108       107       119       120       191       190       197       198       115       126
 -2       127       128       193       192       199       200       195       201       202       203
 -1        21    4    0    1
 -2         2       204       205         3         6       206       207         7       208       209
 -2       210        10        14       211       212        15       213       214       215        18
 -1        22    4    0    1
 -2         3       205       216        21         7       207       217        23       210       218
 -2       219        25        15       212       220        28       215       221       222        30
 -1        23    4    0    1
 -2        21       216       223        33        23       217       224        35       219       225
 -2       226        37        28       220       227        40       222       228       229        42
 -1        24    4    0    1
 -2        33       223       230        45        35       224       231        47       226       232
 -2       233        49        40       227       234        52       229       235       236        54
 -1        25    4    0    1
 -2        45       230       237        57        47       231       238        59       233       239
 -2       240        61        52       234       241        64       236       242       243        66
 -1        26    4    0    1
 -2        57       237       244        69        59       238       245        71       240       246
 -2       247        73        64       241       248        76       243       249       250        78
 -1        27    4    0    1
 -2        69       244       251        81        71       245       252        83       247       253
 -2       254        85        76       248       255        88       250       256       257        90
 -1        28    4    0    1
 -2        81       251       258        93        83       252       259        95       254       260
 -2       261        97        88       255       262       100       257       263       264       102
 -1        29    4    0    1
 -2        93       258       265       105        95       259       266       107       261       267
 -2       268       109       100       262       269       112       264       270       271       114
 -1        30    4    0    1
 -2       105       265       272       117       107       266       273       119       268       274
 -2       275       121       112       269       276       124       271       277       278       126
 -1        31    4    0    1
 -2         6       206       207         7       130       279       280       131       213       214
 -2       215        18       134       281       282       135       283       284       285       138
 -1        32    4    0    1
 -2         7       207       217        23       131       280       286       141       215       221
 -2       222        30       135       282       287       143       285       288       289       145
 -1        33    4    0    1
 -2        23       217       224        35       141       286       290       148       222       228
 -2       229        42       143       287       291       150       289       292       293       152
 -1        34    4    0    1
 -2        35       224       231        47       148       290       294       155       229       235
 -2       236        54       150       291       295       157       293       296       297       159
 -1        35    4    0    1
 -2        47       231       238        59       155       294       298       162       236       242
 -2       243        66       157       295       299       164       297       300       301       166
 -1        36    4    0    1
 -2        59       238       245        71       162       298       302       169       243       249
 -2       250        78       164       299       303       171       301       304       305       173
 -1        37    4    0    1
 -2        71       245       252        83       169       302       306       176       250       256
 -2       257        90       171       303       307       178       305       308       309       180
 -1        38    4    0    1
 -2        83       252       259        95       176       306       310       183       257       263
 -2       264       102       178       307       311       185       309       312       313       187
 -1        39    4    0    1
 -2        95       259       266       107       183       310       314       190       264       270
 -2       271       114       185       311       315       192       313       316       317       194
 -1        40    4    0    1
 -2       107       266       273       119       190       314       318       197       271       277
 -2       278       126       192       315       319       199       317       320       321       201
 -3
    1PSTEP                         1           1           1          
  100CL  101 5.00000E-02         321                     0    1           1
 -4  DISP        4    1
 -5  D1          1    2    1    0
 -5  D2          1    2    2    0
 -5  D3          1    2    3    0
 -5  ALL         1    2    0    0    1ALL
 -1         1 0.00000E+00 0.00000E+00 0.00000E+00
 -1         2 0.00000E+00 0.00000E+00 0.00000E+00
 -1         3-1.17403E-09 2.38077E-02-3.80184E-04
 -1         4-1.60805E-09 2.37265E-02-3.83466E-03
 -1         5 0.00000E+00 0.00000E+00 0.00000E+00
 -1         6 0.00000E+00 0.00000E+00 0.00000E+00
 -1         7 1.68749E-13 2.38076E-02-3.80181E-04
 -1         8 1.64738E-13 2.37265E-02-3.83466E-03
 -1         9 0.00000E+00 0.00000E+00 0.00000E+00
 -1        10 2.29223E-10 6.06117E-03-5.12616E-05
 -1        11-1.39104E-09 2.37670E-02-2.10710E-03
 -1        12 3.75416E-10 6.03953E-03-1.82469E-03
 -1        13 0.00000E+00 0.00000E+00 0.00000E+00
 -1        14 0.00000E+00 0.00000E+00 0.00000E+00
 -1        15-5.87002E-10 2.38076E-02-3.80183E-04
 -1        16-8.03980E-10 2.37265E-02-3.83466E-03
 -1        17 0.00000E+00 0.00000E+00 0.00000E+00
 -1        18 4.25244E-14 6.06117E-03-5.12622E-05
 -1        19 1.66744E-13 2.37670E-02-2.10710E-03
 -1        20 4.06145E-14 6.03954E-03-1.82469E-03
 -1        21-2.82319E-09 9.18181E-02-2.77248E-03
 -1        22-3.61836E-09 9.15281E-02-9.30536E-03
 -1        23 6.65253E-13 9.18181E-02-2.77247E-03
 -1        24 6.57118E-13 9.15281E-02-9.30536E-03
 -1        25 9.44701E-10 5.26061E-02-1.22180E-03
 -1        26-3.21964E-09 9.16731E-02-6.03868E-03
 -1        27 1.23194E-09 5.24340E-02-6.26191E-03
 -1        28-1.41126E-09 9.18181E-02-2.77248E-03
 -1        29-1.80898E-09 9.15281E-02-9.30536E-03
 -1        30 3.77000E-13 5.26062E-02-1.22180E-03
 -1        31 6.61201E-13 9.16731E-02-6.03868E-03
 -1        32 3.70899E-13 5.24340E-02-6.26191E-03
 -1        33-4.88633E-09 1.98935E-01-8.58542E-03
 -1        34-6.42464E-09 1.98355E-01-1.78199E-02
 -1        35 1.47347E-12 1.98935E-01-8.58541E-03
 -1        36 1.46149E-12 1.98355E-01-1.78199E-02
 -1        37 1.88034E-09 1.40807E-01-5.18707E-03
 -1        38-5.65829E-09 1.98645E-01-1.32024E-02
 -1        39 2.38650E-09 1.40380E-01-1.31171E-02
 -1        40-2.44240E-09 1.98935E-01-8.58541E-03
 -1        41-3.21145E-09 1.98355E-01-1.78199E-02
 -1        42 1.03165E-12 1.40807E-01-5.18707E-03
 -1        43 1.46747E-12 1.98645E-01-1.32024E-02
 -1        44 1.02160E-12 1.40380E-01-1.31171E-02
 -1        45-7.31059E-09 3.40070E-01-1.86392E-02
 -1        46-1.05129E-08 3.39159E-01-3.02003E-02
 -1        47 2.57010E-12 3.40070E-01-1.86391E-02
 -1        48 2.55490E-12 3.39159E-01-3.02002E-02
 -1        49 3.01071E-09 2.65567E-01-1.30516E-02
 -1        50-8.89920E-09 3.39614E-01-2.44195E-02
 -1        51 4.03979E-09 2.64826E-01-2.34956E-02
 -1        52-3.65397E-09 3.40070E-01-1.86391E-02
 -1        53-5.25621E-09 3.39159E-01-3.02003E-02
 -1        54 1.98763E-12 2.65567E-01-1.30516E-02
 -1        55 2.56259E-12 3.39614E-01-2.44194E-02
 -1        56 1.97394E-12 2.64826E-01-2.34956E-02
 -1        57-1.00316E-08 5.10177E-01-3.32446E-02
 -1        58-1.62979E-08 5.08929E-01-4.67616E-02
 -1        59 3.91878E-12 5.10177E-01-3.32446E-02
 -1        60 3.90055E-12 5.08929E-01-4.67616E-02
 -1        61 4.30825E-09 4.21815E-01-2.53711E-02
 -1        62-1.32090E-08 5.09553E-01-4.00028E-02
 -1        63 6.47686E-09 4.20736E-01-3.79559E-02
 -1        64-5.01367E-09 5.10177E-01-3.32446E-02
 -1        65-8.14390E-09 5.08929E-01-4.67616E-02